 VARIABLES = X,Y,DU1,DU2,U1,U2,S11,S22,S33,S12
 ZONE, T="0.1000D+01" F=FEPOINT, I=  281 J=  250
   0.1776201181E-01   0.1341989548E+00   0.6995108697E-05  -0.3884119502E-04   0.0000000000E+00   0.0000000000E+00   0.4743019377E-01   0.9094899254E-02   0.1695752791E-01   0.7256227286E-03
   0.0000000000E+00   0.1332936940E+00   0.0000000000E+00  -0.3964596163E-04   0.0000000000E+00   0.0000000000E+00   0.4772934226E-01   0.9481303838E-02   0.1716319383E-01   0.1226047583E-02
   0.0000000000E+00   0.1166292426E+00   0.0000000000E+00  -0.3742435212E-04   0.0000000000E+00   0.0000000000E+00   0.5982934956E-01   0.3999699100E-02   0.1914871460E-01   0.9754108165E-03
   0.1916396658E-01   0.1162547676E+00   0.9829582524E-05  -0.3642042832E-04   0.0000000000E+00   0.0000000000E+00   0.5466201406E-01   0.3839876600E-02   0.1755056720E-01  -0.4861803349E-02
   0.7801999814E-01   0.2318358890E+00   0.1849893641E-04  -0.4051400749E-04   0.0000000000E+00   0.0000000000E+00   0.2908907510E-01   0.1514353118E-04   0.8731265588E-02   0.2015041416E-02
   0.9780186512E-01   0.2320183392E+00   0.2386522070E-04  -0.3692275069E-04   0.0000000000E+00   0.0000000000E+00   0.3074629830E-01  -0.1502686036E-03   0.9178808909E-02   0.1835363805E-02
   0.9724318012E-01   0.2499608351E+00   0.2095621536E-04  -0.3916492128E-04   0.0000000000E+00   0.0000000000E+00   0.2999115933E-01  -0.1526232655E-03   0.8951560820E-02   0.6305401596E-03
   0.7779366361E-01   0.2499574556E+00   0.1588301032E-04  -0.4254439680E-04   0.0000000000E+00   0.0000000000E+00   0.2714160168E-01  -0.2715142025E-03   0.8061026244E-02   0.7005002766E-03
   0.1910237751E-01   0.2332746120E+00   0.4186906655E-05  -0.4821695311E-04   0.0000000000E+00   0.0000000000E+00   0.2464959666E-01   0.6885335772E-03   0.7601439071E-02   0.5811285737E-03
   0.0000000000E+00   0.2332845579E+00   0.0000000000E+00  -0.4877609362E-04   0.0000000000E+00   0.0000000000E+00   0.2425130887E-01   0.7311701652E-03   0.7494743710E-02   0.6546494652E-03
   0.0000000000E+00   0.2166194409E+00   0.0000000000E+00  -0.4722813783E-04   0.0000000000E+00   0.0000000000E+00   0.2755673303E-01   0.1403174819E-02   0.8687972356E-02   0.6705865767E-03
   0.1853686014E-01   0.2167279294E+00   0.4565344514E-05  -0.4668358177E-04   0.0000000000E+00   0.0000000000E+00   0.2782976619E-01   0.1295525821E-02   0.8737587604E-02   0.1139516199E-02
   0.2572891060E+00   0.9227097485E-01   0.8362000731E-04  -0.3296152572E-05   0.0000000000E+00   0.0000000000E+00   0.2050399916E-01   0.1927704314E-02   0.6729511042E-02  -0.2796415435E-02
   0.2586836440E+00   0.1102814175E+00   0.8236604865E-04  -0.4512505276E-05   0.0000000000E+00   0.0000000000E+00   0.2239157804E-01   0.1427717337E-02   0.7145788612E-02  -0.2688596103E-02
   0.2419345072E+00   0.1106718200E+00   0.7897520231E-04  -0.4849041415E-05   0.0000000000E+00   0.0000000000E+00   0.2261089477E-01   0.7734549803E-03   0.7015304925E-02  -0.3164560964E-02
   0.2394604991E+00   0.9267777873E-01   0.8036313396E-04  -0.3539770277E-05   0.0000000000E+00   0.0000000000E+00   0.2056450557E-01   0.1240725828E-02   0.6541569420E-02  -0.3402809431E-02
   0.9245906452E-01   0.3825766033E-01   0.7111261511E-04  -0.1068227345E-04   0.0000000000E+00   0.0000000000E+00  -0.3506517428E-02  -0.1800357351E-01  -0.6453027282E-02   0.2508106289E-02
   0.1081165025E+00   0.4609179754E-01   0.6964251905E-04  -0.6743959537E-05   0.0000000000E+00   0.0000000000E+00   0.6206220236E-02  -0.7367165167E-02  -0.3482834790E-03  -0.3739121266E-02
   0.9617262483E-01   0.6353054221E-01   0.6152843021E-04  -0.1165248961E-04   0.0000000000E+00   0.0000000000E+00   0.1169168252E-01  -0.4500694926E-02   0.2157296279E-02  -0.5566538690E-02
   0.8321127223E-01   0.5554086829E-01   0.6431273462E-04  -0.1615541316E-04   0.0000000000E+00   0.0000000000E+00   0.3143763486E-02  -0.4021642662E-02  -0.2633637527E-03  -0.1797823273E-02
   0.9815353670E-01   0.1950376784E-01   0.7501009803E-04  -0.5264561245E-05   0.0000000000E+00   0.0000000000E+00  -0.3689828248E-02  -0.2809418065E-01  -0.9535202668E-02   0.3505620055E-02
   0.1000766917E+00   0.0000000000E+00   0.7669068531E-04   0.0000000000E+00   0.0000000000E+00   0.0000000000E+00  -0.5025768372E-02  -0.3042949425E-01  -0.1063657879E-01  -0.1914000083E-02
   0.1209114818E+00   0.0000000000E+00   0.7815183898E-04   0.0000000000E+00   0.0000000000E+00   0.0000000000E+00   0.7526406297E-03  -0.9627846555E-02  -0.2662561777E-02  -0.2054102975E-02
   0.1218066984E+00   0.2610987716E-01   0.7583442070E-04  -0.2431542051E-05   0.0000000000E+00   0.0000000000E+00   0.2948913224E-02  -0.9298568417E-02  -0.1904896558E-02  -0.2465278974E-02
   0.2106257089E+00   0.3763230615E-01   0.8156992776E-04  -0.9266450683E-06   0.0000000000E+00   0.0000000000E+00   0.1335568801E-01   0.2027425130E-02   0.4614933942E-02  -0.3104867084E-02
   0.1905372022E+00   0.3838146130E-01   0.7929222066E-04  -0.1039095662E-05   0.0000000000E+00   0.0000000000E+00   0.1206219581E-01   0.7633715393E-03   0.3847670204E-02  -0.3995987566E-02
   0.1867887457E+00   0.1901247842E-01   0.8059366394E-04  -0.4421810457E-06   0.0000000000E+00   0.0000000000E+00   0.9534949426E-02   0.1239711358E-02   0.3232398235E-02  -0.1972385312E-02
   0.2073147252E+00   0.1873762671E-01   0.8244318411E-04  -0.3971898792E-06   0.0000000000E+00   0.0000000000E+00   0.1160302363E-01   0.2358061849E-02   0.4188325645E-02  -0.1555464212E-02
   0.1574670624E+00   0.2159329825E+00   0.4371544168E-04  -0.2446553376E-04   0.0000000000E+00   0.0000000000E+00   0.3323227765E-01  -0.7256868409E-03   0.9751977243E-02   0.8774400581E-03
   0.1564939653E+00   0.2325786375E+00   0.4129432021E-04  -0.2686449964E-04   0.0000000000E+00   0.0000000000E+00   0.3402364911E-01  -0.3483982248E-03   0.1010257527E-01   0.5539408906E-03
   0.1370146625E+00   0.2326001935E+00   0.3529146640E-04  -0.2994046399E-04   0.0000000000E+00   0.0000000000E+00   0.3332265415E-01  -0.3493485817E-03   0.9891991672E-02   0.9889186526E-03
   0.1382529951E+00   0.2157852951E+00   0.3788511910E-04  -0.2747788619E-04   0.0000000000E+00   0.0000000000E+00   0.3298363198E-01  -0.8092577724E-03   0.9652312262E-02   0.1623581670E-02
   0.0000000000E+00   0.9996680824E-01   0.0000000000E+00  -0.3319275520E-04   0.0000000000E+00   0.0000000000E+00   0.9200432960E-01   0.8461549888E-02   0.3013976385E-01   0.1088485625E-02
   0.1952447977E-01   0.9804632748E-01   0.1544737453E-04  -0.3219911729E-04   0.0000000000E+00   0.0000000000E+00   0.8451357005E-01   0.8003100406E-02   0.2775500114E-01  -0.1268772386E-01
   0.1680476534E-01   0.1512960884E+00   0.5706535176E-05  -0.4062660207E-04   0.0000000000E+00   0.0000000000E+00   0.4032295246E-01   0.6756942385E-02   0.1412396845E-01   0.1240848575E-02
   0.0000000000E+00   0.1499588085E+00   0.0000000000E+00  -0.4119750748E-04   0.0000000000E+00   0.0000000000E+00   0.4075458835E-01   0.7684847486E-02   0.1453183075E-01   0.9492476109E-03
   0.5107345057E-01   0.1386356921E+00   0.1914046851E-04  -0.3394788473E-04   0.0000000000E+00   0.0000000000E+00   0.4157646160E-01   0.2551022258E-02   0.1323824516E-01   0.2166110657E-02
   0.4906340865E-01   0.1540236299E+00   0.1650485225E-04  -0.3634614103E-04   0.0000000000E+00   0.0000000000E+00   0.3868164789E-01   0.2941385415E-02   0.1248690999E-01   0.3373937192E-02
   0.3318666741E-01   0.1526975751E+00   0.1120270566E-04  -0.3887989452E-04   0.0000000000E+00   0.0000000000E+00   0.3971981640E-01   0.5134964794E-02   0.1345643436E-01   0.2584885898E-02
   0.3438476388E-01   0.1357030297E+00   0.1328728485E-04  -0.3675829144E-04   0.0000000000E+00   0.0000000000E+00   0.4386549554E-01   0.5409347841E-02   0.1478245302E-01   0.2558034874E-02
   0.1668981246E-01   0.1677609893E+00   0.5146158594E-05  -0.4214870292E-04   0.0000000000E+00   0.0000000000E+00   0.3651035012E-01   0.5682363447E-02   0.1265781407E-01   0.1512852879E-02
   0.0000000000E+00   0.1666240321E+00   0.0000000000E+00  -0.4263990217E-04   0.0000000000E+00   0.0000000000E+00   0.3653552416E-01   0.6162661022E-02   0.1280945555E-01   0.8092439676E-03
   0.1709635776E-01   0.1840818939E+00   0.4895355700E-05  -0.4363409146E-04   0.0000000000E+00   0.0000000000E+00   0.3335385101E-01   0.3992864780E-02   0.1120401474E-01   0.1483141680E-02
   0.3340083158E-01   0.1685663661E+00   0.1032078073E-04  -0.4052590440E-04   0.0000000000E+00   0.0000000000E+00   0.3622888404E-01   0.4137693232E-02   0.1210997318E-01   0.3220728196E-02
   0.3452324641E-01   0.1842372246E+00   0.9944307253E-05  -0.4200844510E-04   0.0000000000E+00   0.0000000000E+00   0.3345797518E-01   0.3026236383E-02   0.1094526347E-01   0.3110386639E-02
   0.1944794746E-01   0.2499503758E+00   0.3502358286E-05  -0.4962417774E-04   0.0000000000E+00   0.0000000000E+00   0.1993377901E-01  -0.6024246596E-03   0.5799406304E-02   0.1103245963E-03
   0.3848641081E-01   0.2328977512E+00   0.8595105215E-05  -0.4652877048E-04   0.0000000000E+00   0.0000000000E+00   0.2575189938E-01   0.5340369266E-03   0.7885780891E-02   0.1462323617E-02
   0.3889610541E-01   0.2499519578E+00   0.7215112174E-05  -0.4804222306E-04   0.0000000000E+00   0.0000000000E+00   0.2169529577E-01  -0.5189290087E-03   0.6352910028E-02   0.5558372378E-03
   0.3292639108E+00   0.0000000000E+00   0.9722979590E-04   0.0000000000E+00   0.0000000000E+00   0.0000000000E+00   0.1660561644E-01   0.4787377866E-02   0.6417898293E-02  -0.4817115264E-04
   0.3500999940E+00   0.0000000000E+00   0.1000000000E-03   0.0000000000E+00   0.0000000000E+00   0.0000000000E+00   0.1670275950E-01   0.4815940786E-02   0.6455610087E-02  -0.2967580405E-06
   0.3500999940E+00   0.1923035071E-01   0.1000000000E-03  -0.4191893133E-06   0.0000000000E+00   0.0000000000E+00   0.1688414150E-01   0.4733701577E-02   0.6485352923E-02  -0.2787923802E-05
   0.3298600562E+00   0.1871413963E-01   0.9726922721E-04  -0.4056707959E-06   0.0000000000E+00   0.0000000000E+00   0.1679840357E-01   0.4711331213E-02   0.6452920436E-02  -0.1548514812E-03
   0.3500999940E+00   0.3846064573E-01   0.1000000000E-03  -0.8941745386E-06   0.0000000000E+00   0.0000000000E+00   0.1743577934E-01   0.4495487611E-02   0.6579380086E-02  -0.3317178457E-05
   0.3303030397E+00   0.3768216121E-01   0.9721169021E-04  -0.8712883692E-06   0.0000000000E+00   0.0000000000E+00   0.1736874746E-01   0.4485747633E-02   0.6556348527E-02  -0.3205132933E-03
   0.3306555845E+00   0.5676127858E-01   0.9707545881E-04  -0.1446518214E-05   0.0000000000E+00   0.0000000000E+00   0.1828437306E-01   0.4123971231E-02   0.6722503287E-02  -0.4332734285E-03
   0.3309345421E+00   0.7595447225E-01   0.9687509014E-04  -0.2177845691E-05   0.0000000000E+00   0.0000000000E+00   0.1949316733E-01   0.3657102076E-02   0.6945080822E-02  -0.5146240001E-03
   0.3119053356E+00   0.7514335178E-01   0.9379855219E-04  -0.2161022229E-05   0.0000000000E+00   0.0000000000E+00   0.1931876127E-01   0.3526370756E-02   0.6853539608E-02  -0.1024671442E-02
   0.3112391014E+00   0.5605177196E-01   0.9418344150E-04  -0.1426937509E-05   0.0000000000E+00   0.0000000000E+00   0.1806565103E-01   0.4004045767E-02   0.6620909040E-02  -0.8680340490E-03
   0.3310789699E+00   0.9525289878E-01   0.9661286549E-04  -0.3102015565E-05   0.0000000000E+00   0.0000000000E+00   0.2092763553E-01   0.3115896216E-02   0.7213059524E-02  -0.5572454889E-03
   0.3122819439E+00   0.9439752749E-01   0.9328885909E-04  -0.3094511305E-05   0.0000000000E+00   0.0000000000E+00   0.2080144648E-01   0.2982520350E-02   0.7135190049E-02  -0.1102136604E-02
   0.3310650899E+00   0.1147053157E+00   0.9629288459E-04  -0.4248333869E-05   0.0000000000E+00   0.0000000000E+00   0.2252719346E-01   0.2544527517E-02   0.7521516294E-02  -0.5688347500E-03
   0.3309236116E+00   0.1342694048E+00   0.9592859401E-04  -0.5629205086E-05   0.0000000000E+00   0.0000000000E+00   0.2421708714E-01   0.1979463544E-02   0.7858965206E-02  -0.5467339629E-03
   0.3118897477E+00   0.1337879929E+00   0.9189067596E-04  -0.5689135348E-05   0.0000000000E+00   0.0000000000E+00   0.2421595597E-01   0.1837910101E-02   0.7816159821E-02  -0.1072105023E-02
   0.3122786535E+00   0.1139312609E+00   0.9265045444E-04  -0.4262086569E-05   0.0000000000E+00   0.0000000000E+00   0.2245418785E-01   0.2397852523E-02   0.7455612113E-02  -0.1114686233E-02
   0.2890874501E+00   0.1826378414E-01   0.9188609178E-04  -0.3884599257E-06   0.0000000000E+00   0.0000000000E+00   0.1604676218E-01   0.4421077418E-02   0.6140351878E-02  -0.4813613510E-03
   0.2875918124E+00   0.0000000000E+00   0.9181836775E-04   0.0000000000E+00   0.0000000000E+00   0.0000000000E+00   0.1578914507E-01   0.4489670468E-02   0.6083644661E-02  -0.1515709331E-03
   0.3084278285E+00   0.0000000000E+00   0.9449153983E-04   0.0000000000E+00   0.0000000000E+00   0.0000000000E+00   0.1630577085E-01   0.4679875053E-02   0.6295693770E-02  -0.9745239983E-04
   0.3094821741E+00   0.1840585748E-01   0.9455008192E-04  -0.3958208889E-06   0.0000000000E+00   0.0000000000E+00   0.1651666268E-01   0.4606115108E-02   0.6336833335E-02  -0.3117607007E-03
   0.2122731628E+00   0.1636790293E+00   0.6594978410E-04  -0.1158267187E-04   0.0000000000E+00   0.0000000000E+00   0.2880850825E-01  -0.1001295250E-02   0.8342163899E-02  -0.1943821565E-02
   0.2163775255E+00   0.1467599025E+00   0.6903645009E-04  -0.9352462573E-05   0.0000000000E+00   0.0000000000E+00   0.2692316428E-01  -0.1047483728E-02   0.7762704167E-02  -0.2639159159E-02
   0.2310276311E+00   0.1467270844E+00   0.7265606977E-04  -0.8613612827E-05   0.0000000000E+00   0.0000000000E+00   0.2667426205E-01  -0.3606759799E-03   0.7894075821E-02  -0.2487323553E-02
   0.2322203398E+00   0.1630948174E+00   0.7123079675E-04  -0.1035760553E-04   0.0000000000E+00   0.0000000000E+00   0.2818882497E-01  -0.3234666830E-03   0.8359607485E-02  -0.1983592731E-02
   0.2278500083E+00   0.1845671002E-01   0.8455232205E-04  -0.3822755862E-06   0.0000000000E+00   0.0000000000E+00   0.1319535678E-01   0.3173527976E-02   0.4910665427E-02  -0.1193001006E-02
   0.2307022522E+00   0.3704729682E-01   0.8396922866E-04  -0.8679830320E-06   0.0000000000E+00   0.0000000000E+00   0.1451581165E-01   0.2851278593E-02   0.5210127074E-02  -0.2393065801E-02
   0.1834142413E+00   0.0000000000E+00   0.8090429524E-04   0.0000000000E+00   0.0000000000E+00   0.0000000000E+00   0.8483440606E-02   0.1165147727E-02   0.2894576500E-02  -0.6875746756E-03
   0.2042492547E+00   0.0000000000E+00   0.8258871421E-04   0.0000000000E+00   0.0000000000E+00   0.0000000000E+00   0.1080059069E-01   0.2440842576E-02   0.3972429980E-02  -0.5156273526E-03
   0.1417453985E+00   0.0000000000E+00   0.7873252785E-04   0.0000000000E+00   0.0000000000E+00   0.0000000000E+00   0.1680302856E-02  -0.4632442289E-02  -0.8856418300E-03  -0.1620278251E-02
   0.1457473364E+00   0.2098063353E-01   0.7765236580E-04  -0.9278672853E-06   0.0000000000E+00   0.0000000000E+00   0.3803981110E-02  -0.3699489018E-02   0.3134762763E-04  -0.2814273473E-02
   0.3500999940E+00   0.2499821448E+00   0.1000000000E-03  -0.1785524699E-04   0.0000000000E+00   0.0000000000E+00   0.3296593746E-01   0.1600560243E-03   0.9937798046E-02   0.8548511598E-04
   0.3306497320E+00   0.2499820686E+00   0.9417396747E-04  -0.1793140322E-04   0.0000000000E+00   0.0000000000E+00   0.3305959018E-01   0.1620768615E-03   0.9966500114E-02  -0.6571546049E-04
   0.3308829796E+00   0.2310312304E+00   0.9442660748E-04  -0.1553558417E-04   0.0000000000E+00   0.0000000000E+00   0.3194751900E-01   0.5980911206E-04   0.9602198432E-02  -0.1629457208E-03
   0.3500999940E+00   0.2307537990E+00   0.1000000000E-03  -0.1543299741E-04   0.0000000000E+00   0.0000000000E+00   0.3188476538E-01   0.7234351931E-04   0.9587132668E-02   0.7716797897E-04
   0.2730970028E+00   0.2316487497E+00   0.7742075583E-04  -0.1677229499E-04   0.0000000000E+00   0.0000000000E+00   0.3285697042E-01  -0.1776466977E-04   0.9851761726E-02  -0.4462593522E-03
   0.2923456993E+00   0.2314735055E+00   0.8314533876E-04  -0.1618249943E-04   0.0000000000E+00   0.0000000000E+00   0.3246319940E-01   0.1792782098E-04   0.9744338168E-02  -0.3776791174E-03
   0.2917490533E+00   0.2499814186E+00   0.8239634191E-04  -0.1858138456E-04   0.0000000000E+00   0.0000000000E+00   0.3375945847E-01   0.1867248264E-03   0.1018385499E-01  -0.1107512890E-03
   0.2722986120E+00   0.2499808021E+00   0.7639098608E-04  -0.1919788099E-04   0.0000000000E+00   0.0000000000E+00   0.3431187444E-01   0.2084823824E-03   0.1035610705E-01  -0.1289409505E-03
   0.3500999940E+00   0.1730679476E+00   0.1000000000E-03  -0.8980370861E-05   0.0000000000E+00   0.0000000000E+00   0.2757579289E-01   0.1037872451E-02   0.8584099602E-02   0.5718879545E-04
   0.3308733719E+00   0.1733052635E+00   0.9524993189E-04  -0.9054530451E-05   0.0000000000E+00   0.0000000000E+00   0.2760681583E-01   0.9937692141E-03   0.8580175513E-02  -0.4444473105E-03
   0.3308652645E+00   0.1538401139E+00   0.9557648399E-04  -0.7238081602E-05   0.0000000000E+00   0.0000000000E+00   0.2593034719E-01   0.1459546243E-02   0.8216968029E-02  -0.5084270832E-03
   0.3500999940E+00   0.1538389646E+00   0.1000000000E-03  -0.7195357515E-05   0.0000000000E+00   0.0000000000E+00   0.2590627853E-01   0.1497275663E-02   0.8221066258E-02   0.5033988593E-04
   0.3500999940E+00   0.1346097684E+00   0.1000000000E-03  -0.5622636430E-05   0.0000000000E+00   0.0000000000E+00   0.2420096503E-01   0.2009140758E-02   0.7863031736E-02   0.3658365568E-04
   0.3500999940E+00   0.1153803462E+00   0.1000000000E-03  -0.4269824529E-05   0.0000000000E+00   0.0000000000E+00   0.2252091718E-01   0.2554800329E-02   0.7522715254E-02   0.2664055326E-04
   0.3500999940E+00   0.9615071075E-01   0.1000000000E-03  -0.3137145836E-05   0.0000000000E+00   0.0000000000E+00   0.2093581310E-01   0.3113961403E-02   0.7214932352E-02   0.1473848503E-04
   0.3500999940E+00   0.7692086602E-01   0.1000000000E-03  -0.2213783975E-05   0.0000000000E+00   0.0000000000E+00   0.1951577946E-01   0.3649140440E-02   0.6949475970E-02   0.5818962355E-05
   0.3500999940E+00   0.5769083048E-01   0.1000000000E-03  -0.1477515094E-05   0.0000000000E+00   0.0000000000E+00   0.1832875248E-01   0.4122742566E-02   0.6735448515E-02  -0.4365336815E-06
   0.0000000000E+00   0.2499498313E+00   0.0000000000E+00  -0.5016874555E-04   0.0000000000E+00   0.0000000000E+00   0.1930473464E-01  -0.6320069060E-03   0.5601818320E-02   0.6309913753E-03
   0.3759642010E-01   0.2161737228E+00   0.9380895507E-05  -0.4495721023E-04   0.0000000000E+00   0.0000000000E+00   0.2852787067E-01   0.9759973210E-03   0.8851160399E-02   0.2510251108E-02
   0.3620306611E-01   0.2000612461E+00   0.9758608009E-05  -0.4345291551E-04   0.0000000000E+00   0.0000000000E+00   0.3101329990E-01   0.1930564429E-02   0.9883159300E-02   0.2926906927E-02
   0.5559818701E-01   0.1985684790E+00   0.1526500664E-04  -0.4054498539E-04   0.0000000000E+00   0.0000000000E+00   0.3191382620E-01   0.1120433534E-02   0.9910277921E-02   0.3871372645E-02
   0.5752141963E-01   0.2148832675E+00   0.1467952611E-04  -0.4208152110E-04   0.0000000000E+00   0.0000000000E+00   0.2979481350E-01   0.4743562590E-03   0.9080750929E-02   0.3244309284E-02
   0.1781242643E-01   0.2003702304E+00   0.4758325043E-05  -0.4514255757E-04   0.0000000000E+00   0.0000000000E+00   0.3065346558E-01   0.2602109923E-02   0.9976672649E-02   0.1373052065E-02
   0.5821150499E-01   0.2322742368E+00   0.1337708885E-04  -0.4385115247E-04   0.0000000000E+00   0.0000000000E+00   0.2734316491E-01   0.3326441128E-03   0.8302742707E-02   0.1875716024E-02
   0.1555941678E+00   0.2499706257E+00   0.3860682891E-04  -0.2937427694E-04   0.0000000000E+00   0.0000000000E+00   0.3562089802E-01   0.1948985618E-03   0.1074473898E-01   0.2212058351E-03
   0.1361435245E+00   0.2499676036E+00   0.3241450046E-04  -0.3239640165E-04   0.0000000000E+00   0.0000000000E+00   0.3438640255E-01   0.1071705721E-03   0.1034807194E-01   0.3666376787E-03
   0.1750449522E+00   0.2499732713E+00   0.4495523747E-04  -0.2672871854E-04   0.0000000000E+00   0.0000000000E+00   0.3622627270E-01   0.2431645771E-03   0.1094083118E-01   0.9416746577E-04
   0.1759715336E+00   0.2324719217E+00   0.4739660308E-04  -0.2419130940E-04   0.0000000000E+00   0.0000000000E+00   0.3435112734E-01  -0.3151426867E-03   0.1021079540E-01   0.1776663643E-03
   0.2250845733E+00   0.0000000000E+00   0.8457931641E-04   0.0000000000E+00   0.0000000000E+00   0.0000000000E+00   0.1259058566E-01   0.3219557713E-02   0.4743043013E-02  -0.3882182347E-03
   0.2459201549E+00   0.0000000000E+00   0.8681788694E-04   0.0000000000E+00   0.0000000000E+00   0.0000000000E+00   0.1398420647E-01   0.3796202200E-02   0.5334122600E-02  -0.2914876493E-03
   0.2483331996E+00   0.1834204703E-01   0.8685758056E-04  -0.3808744516E-06   0.0000000000E+00   0.0000000000E+00   0.1442589066E-01   0.3733785746E-02   0.5447902923E-02  -0.9073525139E-03
   0.1966060038E+00   0.1994971262E+00   0.5743778943E-04  -0.1745682971E-04   0.0000000000E+00   0.0000000000E+00   0.3191383283E-01  -0.8435313853E-03   0.9321090432E-02  -0.5814784140E-03
   0.2156222109E+00   0.1983765852E+00   0.6308590182E-04  -0.1567178774E-04   0.0000000000E+00   0.0000000000E+00   0.3141530536E-01  -0.5067917063E-03   0.9272554097E-02  -0.9691611806E-03
   0.2156034762E+00   0.2151202219E+00   0.6142818595E-04  -0.1782606700E-04   0.0000000000E+00   0.0000000000E+00   0.3271414138E-01  -0.2652552856E-03   0.9734665827E-02  -0.6478731808E-03
   0.1962782773E+00   0.2156016998E+00   0.5556932879E-04  -0.1962221448E-04   0.0000000000E+00   0.0000000000E+00   0.3305654353E-01  -0.4370351101E-03   0.9785852525E-02  -0.2913852236E-03
   0.1175473597E+00   0.2324036770E+00   0.2948565159E-04  -0.3332303605E-04   0.0000000000E+00   0.0000000000E+00   0.3219419970E-01  -0.3176422870E-03   0.9562967224E-02   0.1451565161E-02
   0.1189127603E+00   0.2152168841E+00   0.3213026755E-04  -0.3082185770E-04   0.0000000000E+00   0.0000000000E+00   0.3251926057E-01  -0.7891124676E-03   0.9519044432E-02   0.2417853893E-02
   0.2139466331E+00   0.2499773455E+00   0.5774914268E-04  -0.2265453888E-04   0.0000000000E+00   0.0000000000E+00   0.3605160808E-01   0.2668734917E-03   0.1089554447E-01  -0.7582554655E-04
   0.1944958094E+00   0.2499755095E+00   0.5136137927E-04  -0.2449051154E-04   0.0000000000E+00   0.0000000000E+00   0.3632599189E-01   0.2655653235E-03   0.1097746717E-01  -0.4870373506E-05
   0.1954886682E+00   0.2323971030E+00   0.5353118238E-04  -0.2195596547E-04   0.0000000000E+00   0.0000000000E+00   0.3435963055E-01  -0.2592045627E-03   0.1023012779E-01  -0.1173502097E-03
   0.2149717798E+00   0.2322635854E+00   0.5963383937E-04  -0.2014061769E-04   0.0000000000E+00   0.0000000000E+00   0.3412272078E-01  -0.1934558977E-03   0.1017877946E-01  -0.3212425105E-03
   0.2343998576E+00   0.2319348894E+00   0.6567157012E-04  -0.1868655179E-04   0.0000000000E+00   0.0000000000E+00   0.3374336794E-01  -0.1282707013E-03   0.1008452917E-01  -0.4361784854E-03
   0.2537686018E+00   0.2318065083E+00   0.7159375233E-04  -0.1759168562E-04   0.0000000000E+00   0.0000000000E+00   0.3329631076E-01  -0.6937069055E-04   0.9968082021E-02  -0.4731203760E-03
   0.2528480676E+00   0.2499799469E+00   0.7028262278E-04  -0.2005314519E-04   0.0000000000E+00   0.0000000000E+00   0.3493167263E-01   0.2323176875E-03   0.1054919710E-01  -0.1324364040E-03
   0.2333973995E+00   0.2499788093E+00   0.6406549314E-04  -0.2119073790E-04   0.0000000000E+00   0.0000000000E+00   0.3554423656E-01   0.2537313783E-03   0.1073939038E-01  -0.1167097324E-03
   0.3111994377E+00   0.2499818319E+00   0.8831574196E-04  -0.1816807218E-04   0.0000000000E+00   0.0000000000E+00   0.3333119555E-01   0.1703707614E-03   0.1005046989E-01  -0.7344920392E-04
   0.3115913198E+00   0.2312564428E+00   0.8880379496E-04  -0.1577818986E-04   0.0000000000E+00   0.0000000000E+00   0.3215414084E-01   0.4706640992E-04   0.9660362175E-02  -0.2644314234E-03
   0.5560038698E-01   0.8312125496E-01   0.4336328099E-04  -0.2570453598E-04   0.0000000000E+00   0.0000000000E+00   0.4064704253E-01   0.1437671651E-01   0.1650712771E-01  -0.1951856138E-01
   0.7197079042E-01   0.9411896347E-01   0.4086622030E-04  -0.2215472786E-04   0.0000000000E+00   0.0000000000E+00   0.3083698472E-01  -0.1701365549E-02   0.8740685753E-02  -0.8433253472E-02
   0.6202004759E-01   0.1069616516E+00   0.3193969263E-04  -0.2675643739E-04   0.0000000000E+00   0.0000000000E+00   0.3776586916E-01  -0.3738889808E-03   0.1121759405E-01  -0.5174395386E-02
   0.3829774269E-01   0.9235775446E-01   0.2940008503E-04  -0.3019743840E-04   0.0000000000E+00   0.0000000000E+00   0.5847727057E-01   0.1081712913E-01   0.2078831991E-01  -0.1475253420E-01
   0.0000000000E+00   0.1999543521E+00   0.0000000000E+00  -0.4565091088E-04   0.0000000000E+00   0.0000000000E+00   0.3048706470E-01   0.2814185689E-02   0.9990375118E-02   0.6867246143E-03
   0.0000000000E+00   0.1832892235E+00   0.0000000000E+00  -0.4411351065E-04   0.0000000000E+00   0.0000000000E+00   0.3329703461E-01   0.4374501935E-02   0.1130146096E-01   0.7252652129E-03
   0.3652419605E-01   0.1168334953E+00   0.1755814919E-04  -0.3392073119E-04   0.0000000000E+00   0.0000000000E+00   0.5203357491E-01   0.6995799683E-02   0.1770881238E-01  -0.5311136957E-02
   0.2667559279E+00   0.0000000000E+00   0.8924692316E-04   0.0000000000E+00   0.0000000000E+00   0.0000000000E+00   0.1502722007E-01   0.4201607199E-02   0.5768648182E-02  -0.2160391138E-03
   0.2687152565E+00   0.1829112644E-01   0.8931149300E-04  -0.3841633150E-06   0.0000000000E+00   0.0000000000E+00   0.1536091664E-01   0.4138464333E-02   0.5849814293E-02  -0.6761235361E-03
   0.2366061222E+00   0.7431376868E-01   0.8171924476E-04  -0.2427418756E-05   0.0000000000E+00   0.0000000000E+00   0.1843161555E-01   0.1793382554E-02   0.6067499432E-02  -0.3404460708E-02
   0.2553013248E+00   0.7383561835E-01   0.8475575079E-04  -0.2272847038E-05   0.0000000000E+00   0.0000000000E+00   0.1862761802E-01   0.2472605243E-02   0.6330066980E-02  -0.2723491963E-02
   0.3104298993E+00   0.3712610801E-01   0.9444228720E-04  -0.8540932766E-06   0.0000000000E+00   0.0000000000E+00   0.1711385598E-01   0.4374879587E-02   0.6446620669E-02  -0.6441619623E-03
   0.2905318279E+00   0.3677639704E-01   0.9171585545E-04  -0.8422632047E-06   0.0000000000E+00   0.0000000000E+00   0.1672215995E-01   0.4182063229E-02   0.6271266953E-02  -0.9908683989E-03
   0.3500999940E+00   0.2115253410E+00   0.1000000000E-03  -0.1312300519E-04   0.0000000000E+00   0.0000000000E+00   0.3063194779E-01   0.3337224451E-03   0.9289701071E-02   0.7082603652E-04
   0.3310031156E+00   0.2119676269E+00   0.9469763007E-04  -0.1323710540E-04   0.0000000000E+00   0.0000000000E+00   0.3068103567E-01   0.3081984880E-03   0.9296770246E-02  -0.2872599002E-03
   0.3309379891E+00   0.1926905750E+00   0.9495805534E-04  -0.1106299549E-04   0.0000000000E+00   0.0000000000E+00   0.2920115108E-01   0.5994160220E-03   0.8940170130E-02  -0.3716914934E-03
   0.3500999940E+00   0.1922967330E+00   0.1000000000E-03  -0.1096298813E-04   0.0000000000E+00   0.0000000000E+00   0.2916586554E-01   0.6398825988E-03   0.8941724443E-02   0.6552748489E-04
   0.2926466990E+00   0.2126701857E+00   0.8394598769E-04  -0.1386432639E-04   0.0000000000E+00   0.0000000000E+00   0.3111672181E-01   0.2194846567E-03   0.9400861939E-02  -0.7145665265E-03
   0.2735824414E+00   0.2131289197E+00   0.7851239308E-04  -0.1444429677E-04   0.0000000000E+00   0.0000000000E+00   0.3146386083E-01   0.1336300078E-03   0.9479247250E-02  -0.8552593559E-03
   0.2734350748E+00   0.1942602820E+00   0.7956075545E-04  -0.1222097110E-04   0.0000000000E+00   0.0000000000E+00   0.2992866950E-01   0.2652703627E-03   0.9058181959E-02  -0.1146233889E-02
   0.2925036678E+00   0.1934351430E+00   0.8474077434E-04  -0.1164200695E-04   0.0000000000E+00   0.0000000000E+00   0.2960211049E-01   0.3999231294E-03   0.9000610086E-02  -0.9618203337E-03
   0.1944838930E+00   0.5816815139E-01   0.7727900391E-04  -0.1966009768E-05   0.0000000000E+00   0.0000000000E+00   0.1533095751E-01   0.3518979358E-03   0.4704856634E-02  -0.4814533036E-02
   0.2141740656E+00   0.5661190176E-01   0.8018661435E-04  -0.1681343961E-05   0.0000000000E+00   0.0000000000E+00   0.1577715946E-01   0.1447478475E-02   0.5167391379E-02  -0.3866314154E-02
   0.7320781865E-01   0.1305644753E+00   0.2884934778E-04  -0.2758768933E-04   0.0000000000E+00   0.0000000000E+00   0.3908880550E-01  -0.1488178101E-02   0.1128018822E-01   0.8127500201E-03
   0.5551177846E-01   0.1224448455E+00   0.2415685582E-04  -0.3061449407E-04   0.0000000000E+00   0.0000000000E+00   0.4548549939E-01   0.3380545864E-02   0.1465981358E-01  -0.1338126138E-02
   0.8081224504E-01   0.1172526856E+00   0.3502464357E-04  -0.2340140762E-04   0.0000000000E+00   0.0000000000E+00   0.3756966493E-01  -0.2480449596E-02   0.1052676460E-01  -0.1607016497E-02
   0.5834464284E-01   0.2499544028E+00   0.1130924386E-04  -0.4559721554E-04   0.0000000000E+00   0.0000000000E+00   0.2425952346E-01  -0.3983614928E-03   0.7158348589E-02   0.6376929242E-03
   0.7820916701E-01   0.2133823150E+00   0.2050920841E-04  -0.3831501503E-04   0.0000000000E+00   0.0000000000E+00   0.3075709983E-01  -0.1117584926E-03   0.9193602401E-02   0.3516341852E-02
   0.7801872169E-01   0.1933985116E+00   0.2222189015E-04  -0.3586141678E-04   0.0000000000E+00   0.0000000000E+00   0.3290575748E-01  -0.2256281657E-03   0.9804038794E-02   0.4139163283E-02
   0.1768060772E+00   0.2157777740E+00   0.4963515717E-04  -0.2182601722E-04   0.0000000000E+00   0.0000000000E+00   0.3324378042E-01  -0.5945619302E-03   0.9794765547E-02   0.2225677961E-03